#include "../ff/charmm36-feb2026_ljpme_cgenff-5.0.ff/forcefield.itp"

; additional params for the molecule
#include "pfbs_ani.prm"

#include "pfbs_ani.itp"

#include "../ff/charmm36-feb2026_ljpme_cgenff-5.0.ff/tip3p.itp"
#ifdef POSRES_WATER
; Position restraint for each water oxygen
[ position_restraints ]
;  i funct		 fcx		fcy		   fcz
   1	1		1000	   1000		  1000
#endif

; Include topology for ions
#include "../ff/charmm36-feb2026_ljpme_cgenff-5.0.ff/ions.itp"

[ system ]
; Name
mol

[ molecules ]
; Compound		  #mols
PFBS_ani			1

